REMARK SMILES CCC(=C(c1ccccc1)c1ccccc1)c1ccc(OCCN(C)C)cc1
REMARK SMILES IDX 21 1 20 2 17 3 18 4 28 5 19 6 27 7 3 8 4 9 2 10 1 11 5 12
REMARK SMILES IDX 6 13 10 14 7 15 9 16 8 17 11 18 12 19 16 20 13 21 15 22
REMARK SMILES IDX 14 23 22 24 23 25 24 26 25 27 26 28
REMARK H PARENT
REMARK Flexibility Score: inf
ROOT
ATOM      1  O   UNL     1      -2.643   3.272  -0.994  1.00  0.00    -0.492 OA
ENDROOT
BRANCH   1   2
ATOM      2  C   UNL     1      -2.024   2.259  -0.245  1.00  0.00     0.119 A 
ATOM      3  C   UNL     1      -0.648   0.295   1.233  1.00  0.00    -0.022 A 
ATOM      4  C   UNL     1      -1.685  -0.071   0.360  1.00  0.00     0.012 A 
ATOM      5  C   UNL     1      -0.339   1.653   1.397  1.00  0.00     0.012 A 
ATOM      6  C   UNL     1      -2.369   0.901  -0.373  1.00  0.00     0.047 A 
ATOM      7  C   UNL     1      -1.023   2.625   0.661  1.00  0.00     0.047 A 
BRANCH   3   8
ATOM      8  C   UNL     1       0.117  -0.750   1.964  1.00  0.00    -0.033 C 
ATOM      9  C   UNL     1       0.762  -1.740   1.284  1.00  0.00    -0.007 C 
BRANCH   8  10
ATOM     10  C   UNL     1       0.133  -0.665   3.479  1.00  0.00     0.033 C 
ATOM     11  C   UNL     1       1.499  -0.237   4.013  1.00  0.00     0.009 C 
ENDBRANCH   8  10
BRANCH   9  12
ATOM     12  C   UNL     1       1.363  -2.904   1.976  1.00  0.00    -0.018 A 
ATOM     13  C   UNL     1       0.551  -3.844   2.631  1.00  0.00     0.009 A 
ATOM     14  C   UNL     1       2.750  -3.118   1.911  1.00  0.00     0.009 A 
ATOM     15  C   UNL     1       1.123  -4.960   3.248  1.00  0.00     0.001 A 
ATOM     16  C   UNL     1       3.319  -4.235   2.530  1.00  0.00     0.001 A 
ATOM     17  C   UNL     1       2.507  -5.153   3.201  1.00  0.00     0.000 A 
ENDBRANCH   9  12
BRANCH   9  18
ATOM     18  C   UNL     1       0.922  -1.694  -0.194  1.00  0.00    -0.018 A 
ATOM     19  C   UNL     1       1.502  -0.574  -0.818  1.00  0.00     0.009 A 
ATOM     20  C   UNL     1       0.512  -2.782  -0.981  1.00  0.00     0.009 A 
ATOM     21  C   UNL     1       1.640  -0.535  -2.208  1.00  0.00     0.001 A 
ATOM     22  C   UNL     1       0.652  -2.739  -2.372  1.00  0.00     0.001 A 
ATOM     23  C   UNL     1       1.211  -1.614  -2.985  1.00  0.00     0.000 A 
ENDBRANCH   9  18
ENDBRANCH   3   8
ENDBRANCH   1   2
BRANCH   1  24
ATOM     24  C   UNL     1      -3.475   3.067  -2.138  1.00  0.00     0.245 C 
BRANCH  24  25
ATOM     25  C   UNL     1      -2.668   2.520  -3.325  1.00  0.00     0.125 C 
BRANCH  25  26
ATOM     26  N   UNL     1      -1.383   3.238  -3.474  1.00  0.00    -0.306 NA
ATOM     27  C   UNL     1      -0.419   2.408  -4.215  1.00  0.00     0.105 C 
ATOM     28  C   UNL     1      -1.571   4.520  -4.175  1.00  0.00     0.105 C 
ENDBRANCH  25  26
ENDBRANCH  24  25
ENDBRANCH   1  24
TORSDOF 8
