MODEL 1
REMARK VINA RESULT:    -4.376      0.000      0.000
REMARK INTER + INTRA:          -8.203
REMARK INTER:                  -6.422
REMARK INTRA:                  -1.781
REMARK UNBOUND:                -1.781
REMARK SMILES CCC(=C(c1ccccc1)c1ccccc1)c1ccc(OCCN(C)C)cc1
REMARK SMILES IDX 21 1 20 2 17 3 18 4 28 5 19 6 27 7 3 8 4 9 2 10 1 11 5 12
REMARK SMILES IDX 6 13 10 14 7 15 9 16 8 17 11 18 12 19 16 20 13 21 15 22
REMARK SMILES IDX 14 23 22 24 23 25 24 26 25 27 26 28
REMARK H PARENT
REMARK Flexibility Score: inf
ROOT
ATOM      1  O   UNL     1      10.179  11.339   4.234  1.00  0.00    -0.492 OA
ENDROOT
BRANCH   1   2
ATOM      2  C   UNL     1      10.036  11.643   2.871  1.00  0.00     0.119 A 
ATOM      3  C   UNL     1       9.815  12.388   0.163  1.00  0.00    -0.022 A 
ATOM      4  C   UNL     1       8.756  11.725   0.806  1.00  0.00     0.012 A 
ATOM      5  C   UNL     1      11.001  12.629   0.872  1.00  0.00     0.012 A 
ATOM      6  C   UNL     1       8.864  11.355   2.148  1.00  0.00     0.047 A 
ATOM      7  C   UNL     1      11.106  12.260   2.216  1.00  0.00     0.047 A 
BRANCH   3   8
ATOM      8  C   UNL     1       9.670  12.834  -1.248  1.00  0.00    -0.033 C 
ATOM      9  C   UNL     1       9.381  14.135  -1.537  1.00  0.00    -0.007 C 
BRANCH   8  10
ATOM     10  C   UNL     1       9.847  11.784  -2.329  1.00  0.00     0.033 C 
ATOM     11  C   UNL     1      10.722  10.623  -1.860  1.00  0.00     0.009 C 
ENDBRANCH   8  10
BRANCH   9  12
ATOM     12  C   UNL     1       9.034  14.575  -2.909  1.00  0.00    -0.018 A 
ATOM     13  C   UNL     1       7.697  14.591  -3.338  1.00  0.00     0.009 A 
ATOM     14  C   UNL     1      10.039  15.057  -3.765  1.00  0.00     0.009 A 
ATOM     15  C   UNL     1       7.375  15.045  -4.620  1.00  0.00     0.001 A 
ATOM     16  C   UNL     1       9.713  15.509  -5.047  1.00  0.00     0.001 A 
ATOM     17  C   UNL     1       8.383  15.499  -5.475  1.00  0.00     0.000 A 
ENDBRANCH   9  12
BRANCH   9  18
ATOM     18  C   UNL     1       9.424  15.193  -0.494  1.00  0.00    -0.018 A 
ATOM     19  C   UNL     1       8.470  15.219   0.541  1.00  0.00     0.009 A 
ATOM     20  C   UNL     1      10.432  16.170  -0.521  1.00  0.00     0.009 A 
ATOM     21  C   UNL     1       8.512  16.223   1.513  1.00  0.00     0.001 A 
ATOM     22  C   UNL     1      10.470  17.173   0.453  1.00  0.00     0.001 A 
ATOM     23  C   UNL     1       9.508  17.202   1.466  1.00  0.00     0.000 A 
ENDBRANCH   9  18
ENDBRANCH   3   8
ENDBRANCH   1   2
BRANCH   1  24
ATOM     24  C   UNL     1      11.087  10.379   4.779  1.00  0.00     0.245 C 
BRANCH  24  25
ATOM     25  C   UNL     1      10.994   9.038   4.036  1.00  0.00     0.125 C 
BRANCH  25  26
ATOM     26  N   UNL     1       9.767   8.302   4.413  1.00  0.00    -0.306 NA
ATOM     27  C   UNL     1       9.482   7.248   3.426  1.00  0.00     0.105 C 
ATOM     28  C   UNL     1       9.899   7.702   5.752  1.00  0.00     0.105 C 
ENDBRANCH  25  26
ENDBRANCH  24  25
ENDBRANCH   1  24
TORSDOF 8
ENDMDL
MODEL 2
REMARK VINA RESULT:    -1.424      1.446      2.099
REMARK INTER + INTRA:          -3.871
REMARK INTER:                  -2.767
REMARK INTRA:                  -1.104
REMARK UNBOUND:                -1.781
REMARK SMILES CCC(=C(c1ccccc1)c1ccccc1)c1ccc(OCCN(C)C)cc1
REMARK SMILES IDX 21 1 20 2 17 3 18 4 28 5 19 6 27 7 3 8 4 9 2 10 1 11 5 12
REMARK SMILES IDX 6 13 10 14 7 15 9 16 8 17 11 18 12 19 16 20 13 21 15 22
REMARK SMILES IDX 14 23 22 24 23 25 24 26 25 27 26 28
REMARK H PARENT
REMARK Flexibility Score: inf
ROOT
ATOM      1  O   UNL     1      10.190   9.869   2.189  1.00  0.00    -0.492 OA
ENDROOT
BRANCH   1   2
ATOM      2  C   UNL     1      10.024  10.702   1.072  1.00  0.00     0.119 A 
ATOM      3  C   UNL     1       9.835  12.419  -1.153  1.00  0.00    -0.022 A 
ATOM      4  C   UNL     1       8.779  12.334  -0.232  1.00  0.00     0.012 A 
ATOM      5  C   UNL     1      10.963  11.603  -0.979  1.00  0.00     0.012 A 
ATOM      6  C   UNL     1       8.870  11.483   0.872  1.00  0.00     0.047 A 
ATOM      7  C   UNL     1      11.054  10.753   0.127  1.00  0.00     0.047 A 
BRANCH   3   8
ATOM      8  C   UNL     1       9.758  13.372  -2.292  1.00  0.00    -0.033 C 
ATOM      9  C   UNL     1       9.663  14.713  -2.068  1.00  0.00    -0.007 C 
BRANCH   8  10
ATOM     10  C   UNL     1       9.778  12.784  -3.691  1.00  0.00     0.033 C 
ATOM     11  C   UNL     1       8.673  11.748  -3.892  1.00  0.00     0.009 C 
ENDBRANCH   8  10
BRANCH   9  12
ATOM     12  C   UNL     1       9.385  15.673  -3.162  1.00  0.00    -0.018 A 
ATOM     13  C   UNL     1      10.437  16.269  -3.876  1.00  0.00     0.009 A 
ATOM     14  C   UNL     1       8.058  15.933  -3.545  1.00  0.00     0.009 A 
ATOM     15  C   UNL     1      10.165  17.144  -4.932  1.00  0.00     0.001 A 
ATOM     16  C   UNL     1       7.790  16.809  -4.601  1.00  0.00     0.001 A 
ATOM     17  C   UNL     1       8.842  17.417  -5.291  1.00  0.00     0.000 A 
ENDBRANCH   9  12
BRANCH   9  18
ATOM     18  C   UNL     1       9.861  15.293  -0.713  1.00  0.00    -0.018 A 
ATOM     19  C   UNL     1      10.918  14.856   0.107  1.00  0.00     0.009 A 
ATOM     20  C   UNL     1       9.002  16.301  -0.246  1.00  0.00     0.009 A 
ATOM     21  C   UNL     1      11.091  15.400   1.382  1.00  0.00     0.001 A 
ATOM     22  C   UNL     1       9.179  16.842   1.031  1.00  0.00     0.001 A 
ATOM     23  C   UNL     1      10.220  16.388   1.847  1.00  0.00     0.000 A 
ENDBRANCH   9  18
ENDBRANCH   3   8
ENDBRANCH   1   2
BRANCH   1  24
ATOM     24  C   UNL     1       9.535   8.614   2.393  1.00  0.00     0.245 C 
BRANCH  24  25
ATOM     25  C   UNL     1       8.838   8.564   3.761  1.00  0.00     0.125 C 
BRANCH  25  26
ATOM     26  N   UNL     1       9.824   8.448   4.859  1.00  0.00    -0.306 NA
ATOM     27  C   UNL     1      10.988   7.662   4.417  1.00  0.00     0.105 C 
ATOM     28  C   UNL     1      10.270   9.777   5.312  1.00  0.00     0.105 C 
ENDBRANCH  25  26
ENDBRANCH  24  25
ENDBRANCH   1  24
TORSDOF 8
ENDMDL
